                               Psi4 1.4a2.dev845

  ==> Input File <==

--------------------------------------------------------------------------
memory 24 GB
molecule {
symmetry cs
0 3
O
H 1 R1
O 1 R3 2 A1
H 3 R2 1 A2 2 D1
A1        =   91.0886920327
A2        =   91.0886920327
D1        = -180.0000000000
R1        =    0.9525332588
R2        =    0.9525332588
R3        =    1.8090589995
}
set {
basis aug-cc-pvdz
e_convergence 10
reference uhf
scf_type pk
stability_analysis follow
    DOCC [     7,    1]
    SOCC [     1,    1]
}

wfn = energy("scf", return_wfn=True)[1]
wfn.write_molden('cs.molden')

--------------------------------------------------------------------------

    Molecular point group: cs
  Charge       = 0
  Multiplicity = 3
  Basis Set: AUG-CC-PVDZ
    Blend: AUG-CC-PVDZ
    Molecular point group: cs
  Basis Set: AUG-CC-PVDZ
    Blend: AUG-CC-PVDZ
    Molecular point group: cs

    Geometry (in Angstrom), charge = 0, multiplicity = 3:

       Center              X                  Y                   Z               Mass
    ------------   -----------------  -----------------  -----------------  -----------------
         O            0.904366215424    -0.017186166449     0.000000000000    15.994914619570
         H            0.904366215424    -0.969719425249     0.000000000000     1.007825032230
         O           -0.904366215424     0.017186166449     0.000000000000    15.994914619570
         H           -0.904366215424     0.969719425249     0.000000000000     1.007825032230

  Basis Set: AUG-CC-PVDZ
    Blend: AUG-CC-PVDZ

    Orbital Energies [Eh]
    ---------------------

    Alpha Occupied:

       1Ap   -20.670313     2Ap   -20.604132     3Ap    -1.462088
       4Ap    -1.342798     5Ap    -0.733868     6Ap    -0.713608
       1App   -0.690451     7Ap    -0.636539     2App   -0.525149
       8Ap    -0.485313

    Alpha Virtual:

       9Ap     0.038807    10Ap     0.054188    11Ap     0.151504
       3App    0.184044    12Ap     0.198108    13Ap     0.210474
      14Ap     0.223720     4App    0.237607    15Ap     0.237994
      16Ap     0.326003    17Ap     0.338896     5App    0.361999
      18Ap     0.426785    19Ap     0.431823     6App    0.461988
      20Ap     0.556250    21Ap     0.632456    22Ap     0.659576
      23Ap     0.869912     7App    0.899432    24Ap     0.907717
      25Ap     1.040652     8App    1.066009    26Ap     1.104444
       9App    1.146835    27Ap     1.178441    10App    1.223037
      28Ap     1.285848    29Ap     1.314342    11App    1.355658
      30Ap     1.470205    12App    1.568089    31Ap     1.568773
      32Ap     1.619150    33Ap     1.901930    13App    2.041869
      34Ap     2.095780    14App    2.101580    35Ap     2.216627
      36Ap     2.402183    37Ap     2.567276    38Ap     2.738892
      39Ap     2.867895    40Ap     3.160518    15App    3.545295
      16App    3.575732    41Ap     3.583837    17App    3.613378
      42Ap     3.659253    18App    3.687764    43Ap     3.728808
      44Ap     3.743473    45Ap     4.165635    46Ap     4.218530

    Beta Occupied:

       1Ap   -20.617561     2Ap   -20.559431     3Ap    -1.291884
       4Ap    -1.179995     5Ap    -0.674936     6Ap    -0.605075
       7Ap    -0.502864     1App   -0.467885

    Beta Virtual:

       8Ap     0.040405     9Ap     0.051998     2App    0.064095
      10Ap     0.129833    11Ap     0.183703    12Ap     0.204072
      13Ap     0.218884     3App    0.221645    14Ap     0.237285
       4App    0.265672    15Ap     0.282646    16Ap     0.332347
      17Ap     0.343944     5App    0.372958    18Ap     0.433704
      19Ap     0.440184     6App    0.473858    20Ap     0.570399
      21Ap     0.651995    22Ap     0.674624    23Ap     0.888821
      24Ap     0.913296     7App    0.935781    25Ap     1.058532
       8App    1.099371    26Ap     1.139862     9App    1.160375
      27Ap     1.238155    10App    1.292543    28Ap     1.312852
      29Ap     1.332880    11App    1.457412    30Ap     1.487449
      12App    1.638466    31Ap     1.639630    32Ap     1.705389
      33Ap     1.935119    13App    2.048695    14App    2.099817
      34Ap     2.117103    35Ap     2.226370    36Ap     2.420585
      37Ap     2.598746    38Ap     2.756541    39Ap     2.883106
      40Ap     3.209424    15App    3.657851    16App    3.677276
      41Ap     3.688584    17App    3.710441    18App    3.715008
      42Ap     3.725721    43Ap     3.797485    44Ap     3.837305
      45Ap     4.205282    46Ap     4.257925

    Final Occupation by Irrep:
             Ap   App
    DOCC [     7,    1 ]
    SOCC [     1,    1 ]

  @UHF Final Energy:  -150.76529360514866

   => Energetics <=

    Nuclear Repulsion Energy =             31.9184647173775211
    One-Electron Energy =                -271.6036265965500434
    Two-Electron Energy =                  88.9198682740238553
    Total Energy =                       -150.7652936051486563

  UHF NO Occupations:
  HONO-2 :    7 Ap 1.9962950
  HONO-1 :    8 Ap 1.0000000
  HONO-0 :    2App 1.0000000
  LUNO+0 :    9 Ap 0.0037050
  LUNO+1 :    3App 0.0023022
  LUNO+2 :   10 Ap 0.0019242
  LUNO+3 :   11 Ap 0.0017581

Computation Completed

Properties will be evaluated at   0.000000,   0.000000,   0.000000 [a0]

Properties computed using the SCF density matrix

  Nuclear Dipole Moment: [e a0]
     X:     0.0000      Y:     0.0000      Z:     0.0000

  Electronic Dipole Moment: [e a0]
     X:    -0.3072      Y:     0.0581      Z:     0.0000

  Dipole Moment: [e a0]
     X:    -0.3072      Y:     0.0581      Z:     0.0000     Total:     0.3126

  Dipole Moment: [D]
     X:    -0.7808      Y:     0.1476      Z:     0.0000     Total:     0.7947

*** tstop() called on smg13363-ws at Fri Jan  8 11:09:24 2021
Module time:
	user time   =       4.25 seconds =       0.07 minutes
	system time =       0.02 seconds =       0.00 minutes
	total time  =          5 seconds =       0.08 minutes
Total time:
	user time   =       4.25 seconds =       0.07 minutes
	system time =       0.02 seconds =       0.00 minutes
	total time  =          5 seconds =       0.08 minutes

    Psi4 stopped on: Friday, 08 January 2021 11:09AM
    Psi4 wall time for execution: 0:00:04.32

*** Psi4 exiting successfully. Buy a developer a beer!
