                               Psi4 1.4a2.dev845

  ==> Input File <==

--------------------------------------------------------------------------
memory 24 GB
molecule {
symmetry c1
0 3
O
H 1 R1
O 1 R3 2 A1
H 3 R2 1 A2 2 D1
A1        =   91.0886920327
A2        =   91.0886920327
D1        = -180.0000000000
R1        =    0.9525332588
R2        =    0.9525332588
R3        =    1.8090589995
}
set {
basis aug-cc-pvdz
e_convergence 10
reference uhf
scf_type pk
stability_analysis follow
}

wfn = energy("scf", return_wfn=True)[1]
wfn.write_molden('c1.molden')

--------------------------------------------------------------------------

    Molecular point group: c1
  Charge       = 0
  Multiplicity = 3
  Basis Set: AUG-CC-PVDZ
    Blend: AUG-CC-PVDZ
    Molecular point group: c1
  Basis Set: AUG-CC-PVDZ
    Blend: AUG-CC-PVDZ
    Molecular point group: c1

    Geometry (in Angstrom), charge = 0, multiplicity = 3:

       Center              X                  Y                   Z               Mass
    ------------   -----------------  -----------------  -----------------  -----------------
         O            0.904366215424    -0.017186166449     0.000000000000    15.994914619570
         H            0.904366215424    -0.969719425249     0.000000000000     1.007825032230
         O           -0.904366215424     0.017186166449     0.000000000000    15.994914619570
         H           -0.904366215424     0.969719425249     0.000000000000     1.007825032230

  Basis Set: AUG-CC-PVDZ
    Blend: AUG-CC-PVDZ

    Orbital Energies [Eh]
    ---------------------

    Alpha Occupied:

       1A    -20.670313     2A    -20.604132     3A     -1.462088
       4A     -1.342798     5A     -0.733868     6A     -0.713608
       7A     -0.690451     8A     -0.636539     9A     -0.525149
      10A     -0.485313

    Alpha Virtual:

      11A      0.038807    12A      0.054188    13A      0.151504
      14A      0.184044    15A      0.198108    16A      0.210474
      17A      0.223720    18A      0.237607    19A      0.237994
      20A      0.326003    21A      0.338896    22A      0.361999
      23A      0.426785    24A      0.431823    25A      0.461988
      26A      0.556250    27A      0.632456    28A      0.659576
      29A      0.869912    30A      0.899432    31A      0.907717
      32A      1.040652    33A      1.066009    34A      1.104444
      35A      1.146835    36A      1.178441    37A      1.223037
      38A      1.285848    39A      1.314342    40A      1.355658
      41A      1.470205    42A      1.568089    43A      1.568773
      44A      1.619150    45A      1.901930    46A      2.041869
      47A      2.095780    48A      2.101580    49A      2.216627
      50A      2.402183    51A      2.567276    52A      2.738892
      53A      2.867895    54A      3.160518    55A      3.545295
      56A      3.575732    57A      3.583837    58A      3.613378
      59A      3.659253    60A      3.687764    61A      3.728808
      62A      3.743473    63A      4.165635    64A      4.218530

    Beta Occupied:

       1A    -20.617561     2A    -20.559431     3A     -1.291884
       4A     -1.179995     5A     -0.674936     6A     -0.605075
       7A     -0.502864     8A     -0.467885

    Beta Virtual:

       9A      0.040405    10A      0.051998    11A      0.064095
      12A      0.129833    13A      0.183703    14A      0.204072
      15A      0.218884    16A      0.221645    17A      0.237285
      18A      0.265672    19A      0.282646    20A      0.332347
      21A      0.343944    22A      0.372958    23A      0.433704
      24A      0.440184    25A      0.473858    26A      0.570399
      27A      0.651995    28A      0.674624    29A      0.888821
      30A      0.913296    31A      0.935781    32A      1.058532
      33A      1.099371    34A      1.139862    35A      1.160375
      36A      1.238155    37A      1.292543    38A      1.312852
      39A      1.332880    40A      1.457412    41A      1.487449
      42A      1.638466    43A      1.639630    44A      1.705389
      45A      1.935119    46A      2.048695    47A      2.099817
      48A      2.117103    49A      2.226370    50A      2.420585
      51A      2.598746    52A      2.756541    53A      2.883106
      54A      3.209424    55A      3.657851    56A      3.677276
      57A      3.688584    58A      3.710441    59A      3.715008
      60A      3.725721    61A      3.797485    62A      3.837305
      63A      4.205282    64A      4.257925

    Final Occupation by Irrep:
              A
    DOCC [     8 ]
    SOCC [     2 ]

  @UHF Final Energy:  -150.76529360514883

   => Energetics <=

    Nuclear Repulsion Energy =             31.9184647173775211
    One-Electron Energy =                -271.6036265965506118
    Two-Electron Energy =                  88.9198682740242674
    Total Energy =                       -150.7652936051488268

  UHF NO Occupations:
  HONO-2 :    8  A 1.9962950
  HONO-1 :    9  A 1.0000000
  HONO-0 :   10  A 1.0000000
  LUNO+0 :   11  A 0.0037050
  LUNO+1 :   12  A 0.0023022
  LUNO+2 :   13  A 0.0019242
  LUNO+3 :   14  A 0.0017581

Computation Completed

Properties will be evaluated at   0.000000,   0.000000,   0.000000 [a0]

Properties computed using the SCF density matrix

  Nuclear Dipole Moment: [e a0]
     X:     0.0000      Y:     0.0000      Z:     0.0000

  Electronic Dipole Moment: [e a0]
     X:     0.3072      Y:    -0.0581      Z:    -0.0000

  Dipole Moment: [e a0]
     X:     0.3072      Y:    -0.0581      Z:    -0.0000     Total:     0.3126

  Dipole Moment: [D]
     X:     0.7808      Y:    -0.1476      Z:    -0.0000     Total:     0.7947

*** tstop() called on smg13363-ws at Fri Jan  8 11:07:24 2021
Module time:
	user time   =       2.50 seconds =       0.04 minutes
	system time =       0.03 seconds =       0.00 minutes
	total time  =          3 seconds =       0.05 minutes
Total time:
	user time   =       2.50 seconds =       0.04 minutes
	system time =       0.03 seconds =       0.00 minutes
	total time  =          3 seconds =       0.05 minutes

    Psi4 stopped on: Friday, 08 January 2021 11:07AM
    Psi4 wall time for execution: 0:00:02.57

*** Psi4 exiting successfully. Buy a developer a beer!
